ITEM: TIMESTEP
380000
ITEM: NUMBER OF ATOMS
1
ITEM: BOX BOUNDS mm mm mm
-9.98485 52.0714
-0.000114 1.14011
-0.0003 3
ITEM: ATOMS v_x1 v_y1 v_z1 v_rad1
8.99754e-05 8.99995e-05 3.19933e-04 0