ITEM: TIMESTEP
202000
ITEM: NUMBER OF ATOMS
70728
ITEM: BOX BOUNDS mm mm mm
-6 12
-0.000514 5.14051
-0.0003 3
ITEM: ATOMS v_x1 v_y1 v_z1 v_rad1
1.08292e-04 7.84998e-05 3.08495e-04 8.50000e-06
2.25514e-04 7.85127e-05 3.08493e-04 8.50000e-06
8.41110e-05 8.34898e-05 3.13476e-04 1.35000e-05
1.04847e-04 1.00926e-04 3.13482e-04 1.35000e-05
1.30380e-04 8.60031e-05 3.15983e-04 1.60000e-05
1.49118e-04 1.02068e-04 3.08497e-04 8.50000e-06
1.53779e-04 9.11922e-05 3.21024e-04 8.50000e-06
1.67740e-04 1.07419e-04 3.10989e-04 1.10000e-05
1.72945e-04 8.34916e-05 3.13475e-04 1.35000e-05
1.90587e-04 1.03822e-04 3.10985e-04 1.10000e-05
2.04218e-04 8.34988e-05 3.13488e-04 1.35000e-05
2.03668e-04 1.02026e-04 3.25332e-04 8.50000e-06
2.24948e-04 1.00797e-04 3.13479e-04 1.35000e-05
2.46412e-04 8.44229e-05 3.13487e-04 1.35000e-05
8.47430e-05 1.22873e-04 3.13487e-04 1.35000e-05
1.29842e-04 1.18011e-04 3.15976e-04 1.60000e-05
1.56554e-04 1.30275e-04 3.13481e-04 1.35000e-05
1.80413e-04 1.24945e-04 3.14991e-04 1.10000e-05
2.07380e-04 1.24357e-04 3.15969e-04 1.60000e-05
2.30620e-04 1.20089e-04 3.22396e-04 8.50000e-06
8.34880e-05 1.57519e-04 3.13462e-04 1.35000e-05
1.08142e-04 1.41523e-04 3.15982e-04 1.60000e-05
1.31490e-04 1.41327e-04 3.08497e-04 8.50000e-06
1.30022e-04 1.58461e-04 3.08470e-04 8.50000e-06
1.74681e-04 1.56561e-04 3.18471e-04 1.85000e-05
2.06155e-04 1.53720e-04 3.13484e-04 1.35000e-05
2.34744e-04 1.43630e-04 3.15978e-04 1.60000e-05
8.10700e-05 1.82223e-04 3.10995e-04 1.10000e-05
1.09143e-04 1.75964e-04 3.18481e-04 1.85000e-05
1.41792e-04 1.74089e-04 3.10987e-04 1.10000e-05
1.69061e-04 1.87993e-04 3.13485e-04 1.35000e-05
2.02897e-04 1.92868e-04 3.20967e-04 2.10000e-05
2.32261e-04 1.73554e-04 3.10984e-04 1.10000e-05
8.34930e-05 2.06502e-04 3.13487e-04 1.35000e-05
1.12376e-04 2.11921e-04 3.15985e-04 1.60000e-05
1.34673e-04 1.94203e-04 3.24733e-04 1.35000e-05
1.56306e-04 2.16912e-04 3.18474e-04 1.85000e-05
2.30574e-04 1.93421e-04 3.08497e-04 8.50000e-06
2.39040e-04 2.08778e-04 3.08459e-04 8.50000e-06
8.09950e-05 2.30740e-04 3.10977e-04 1.10000e-05
1.07781e-04 2.41140e-04 3.13484e-04 1.35000e-05
1.37543e-04 2.33546e-04 3.08481e-04 8.50000e-06
1.29528e-04 2.40690e-04 3.24727e-04 1.10000e-05
1.87363e-04 2.22743e-04 3.13480e-04 1.35000e-05
2.13099e-04 2.22048e-04 3.10995e-04 1.10000e-05
2.44713e-04 2.44971e-04 3.15981e-04 1.60000e-05
8.47580e-05 2.52484e-04 3.10996e-04 1.10000e-05
7.90210e-05 2.72671e-04 3.08497e-04 8.50000e-06
1.05115e-04 2.72632e-04 3.18484e-04 1.85000e-05
1.32014e-04 2.64123e-04 3.08497e-04 8.50000e-06
1.55141e-04 2.53891e-04 3.18473e-04 1.85000e-05
1.88614e-04 2.49716e-04 3.13492e-04 1.35000e-05
2.16545e-04 2.53342e-04 3.13468e-04 1.35000e-05
2.00770e-04 2.65825e-04 3.22279e-04 8.50000e-06
2.41254e-04 2.75041e-04 3.13481e-04 1.35000e-05
8.34920e-05 2.96234e-04 3.13473e-04 1.35000e-05
1.65184e-04 2.84419e-04 3.13480e-04 1.35000e-05
1.47685e-04 3.01788e-04 3.10995e-04 1.10000e-05
1.90443e-04 2.81842e-04 3.10995e-04 1.10000e-05
2.14780e-04 2.80309e-04 3.13491e-04 1.35000e-05
1.99762e-04 2.93740e-04 3.23814e-04 8.50000e-06
2.44963e-04 3.01774e-04 3.13483e-04 1.35000e-05
9.10370e-05 3.29045e-04 3.20967e-04 2.10000e-05
1.19727e-04 3.03779e-04 3.15968e-04 1.60000e-05
1.17706e-04 3.27024e-04 3.08496e-04 8.50000e-06
1.39587e-04 3.23587e-04 3.10993e-04 1.10000e-05
1.62644e-04 3.20172e-04 3.08488e-04 8.50000e-06
1.59119e-04 3.13025e-04 3.26276e-04 1.10000e-05
1.83967e-04 3.10727e-04 3.15984e-04 1.60000e-05
2.16648e-04 3.09641e-04 3.15976e-04 1.60000e-05
1.24111e-04 3.47484e-04 3.13465e-04 1.35000e-05
1.58280e-04 3.31938e-04 3.19951e-04 8.50000e-06
1.55428e-04 3.54781e-04 3.10994e-04 1.10000e-05
1.44267e-04 3.41551e-04 3.19966e-04 8.50000e-06
1.75126e-04 3.36002e-04 3.10996e-04 1.10000e-05
1.82843e-04 3.56634e-04 3.10983e-04 1.10000e-05
2.01595e-04 3.37868e-04 3.15984e-04 1.60000e-05
2.36363e-04 3.37839e-04 3.18483e-04 1.85000e-05
8.34870e-05 3.61860e-04 3.13478e-04 1.35000e-05
8.56650e-05 3.85555e-04 3.19270e-04 1.10000e-05
1.36488e-04 3.74138e-04 3.15985e-04 1.60000e-05
1.65756e-04 3.76859e-04 3.13482e-04 1.35000e-05
1.98665e-04 3.75164e-04 3.13490e-04 1.35000e-05
2.17256e-04 3.59266e-04 3.10982e-04 1.10000e-05
2.26673e-04 3.84076e-04 3.15981e-04 1.60000e-05
7.84980e-05 4.00283e-04 3.08627e-04 8.50000e-06
1.13672e-04 4.06000e-04 3.23972e-04 2.40000e-05
1.49534e-04 4.00469e-04 3.13487e-04 1.35000e-05
1.82788e-04 3.87269e-04 3.22718e-04 8.50000e-06
1.69048e-04 4.01288e-04 3.23603e-04 8.50000e-06
1.76088e-04 3.98006e-04 3.08489e-04 8.50000e-06
1.98584e-04 4.04728e-04 3.15981e-04 1.60000e-05
7.85130e-05 4.17298e-04 3.08493e-04 8.50000e-06
8.86790e-05 4.40220e-04 3.18468e-04 1.85000e-05
1.46856e-04 4.31956e-04 3.18468e-04 1.85000e-05
1.73119e-04 4.20822e-04 3.10993e-04 1.10000e-05
1.72526e-04 4.36538e-04 3.25402e-04 8.50000e-06
1.95123e-04 4.36582e-04 3.15980e-04 1.60000e-05
2.34983e-04 4.24804e-04 3.26970e-04 2.70000e-05
1.11397e-04 4.57495e-04 3.10986e-04 1.10000e-05
1.39555e-04 4.56249e-04 3.08497e-04 8.50000e-06
1.68465e-04 4.62336e-04 3.18481e-04 1.85000e-05
2.18602e-04 4.63417e-04 3.15987e-04 1.60000e-05
2.47871e-04 4.60744e-04 3.13476e-04 1.35000e-05
7.85060e-05 4.92528e-04 3.08496e-04 8.50000e-06
8.35440e-05 4.71567e-04 3.13483e-04 1.35000e-05
1.25704e-04 4.82200e-04 3.18471e-04 1.85000e-05
1.63646e-04 4.96406e-04 3.15975e-04 1.60000e-05
1.89309e-04 4.82155e-04 3.10976e-04 1.10000e-05
2.10924e-04 4.88860e-04 3.10979e-04 1.10000e-05
8.11320e-05 5.14729e-04 3.10964e-04 1.10000e-05
1.15989e-04 5.12267e-04 3.13460e-04 1.35000e-05
1.40242e-04 5.08989e-04 3.10995e-04 1.10000e-05
1.93227e-04 5.08614e-04 3.15985e-04 1.60000e-05
2.22764e-04 5.07405e-04 3.10989e-04 1.10000e-05
2.43238e-04 5.20629e-04 3.13476e-04 1.35000e-05
8.09940e-05 5.36723e-04 3.10992e-04 1.10000e-05
9.96240e-05 5.29276e-04 3.19989e-04 1.10000e-05
1.01771e-04 5.45030e-04 3.08497e-04 8.50000e-06
1.14729e-04 5.33653e-04 3.08483e-04 8.50000e-06
1.32365e-04 5.26878e-04 3.08497e-04 8.50000e-06
1.61674e-04 5.29561e-04 3.15974e-04 1.60000e-05
2.15157e-04 5.35124e-04 3.18480e-04 1.85000e-05
2.35891e-04 5.49535e-04 3.08497e-04 8.50000e-06
2.41387e-04 5.40441e-04 3.22846e-04 8.50000e-06
8.34950e-05 5.60961e-04 3.13483e-04 1.35000e-05
1.10509e-04 5.79691e-04 3.10991e-04 1.10000e-05
1.32654e-04 5.55898e-04 3.23971e-04 2.40000e-05
1.64780e-04 5.78336e-04 3.15972e-04 1.60000e-05
1.61224e-04 5.54410e-04 3.08497e-04 8.50000e-06
1.89728e-04 5.58304e-04 3.15977e-04 1.60000e-05
2.15715e-04 5.63663e-04 3.10993e-04 1.10000e-05
2.49977e-04 5.63252e-04 3.10974e-04 1.10000e-05
8.61530e-05 5.90225e-04 3.15979e-04 1.60000e-05
1.27925e-04 5.99702e-04 3.15979e-04 1.60000e-05
1.82016e-04 5.93883e-04 3.23794e-04 8.50000e-06
2.04373e-04 5.87651e-04 3.15983e-04 1.60000e-05
2.36765e-04 5.86589e-04 3.15990e-04 1.60000e-05
7.84970e-05 6.26604e-04 3.08491e-04 8.50000e-06
8.06340e-05 6.29008e-04 3.25179e-04 8.50000e-06
7.84980e-05 6.13289e-04 3.19051e-04 8.50000e-06
9.87890e-05 6.19738e-04 3.13488e-04 1.35000e-05
1.28274e-04 6.29090e-04 3.13479e-04 1.35000e-05
1.61456e-04 6.14838e-04 3.20979e-04 2.10000e-05
1.93407e-04 6.14410e-04 3.10975e-04 1.10000e-05
2.19910e-04 6.15626e-04 3.15980e-04 1.60000e-05
2.47738e-04 6.10747e-04 3.10990e-04 1.10000e-05
2.34166e-04 6.34087e-04 3.08485e-04 8.50000e-06
2.32403e-04 6.34490e-04 3.25375e-04 8.50000e-06
8.35050e-05 6.47432e-04 3.13484e-04 1.35000e-05
1.06049e-04 6.39897e-04 3.08481e-04 8.50000e-06
1.39294e-04 6.52725e-04 3.25334e-04 8.50000e-06
1.48962e-04 6.42546e-04 3.10986e-04 1.10000e-05
1.49547e-04 6.61594e-04 3.15083e-04 8.50000e-06
1.75339e-04 6.41872e-04 3.10974e-04 1.10000e-05
1.94606e-04 6.40253e-04 3.08482e-04 8.50000e-06
1.95530e-04 6.59567e-04 3.10980e-04 1.10000e-05
2.15555e-04 6.44694e-04 3.13489e-04 1.35000e-05
2.39091e-04 6.55523e-04 3.10981e-04 1.10000e-05
7.84920e-05 6.68261e-04 3.08487e-04 8.50000e-06
8.10090e-05 6.87433e-04 3.10979e-04 1.10000e-05
1.03498e-04 6.62856e-04 3.10995e-04 1.10000e-05
1.08341e-04 6.89395e-04 3.15983e-04 1.60000e-05
1.27544e-04 6.67027e-04 3.13475e-04 1.35000e-05
1.35445e-04 6.90078e-04 3.10981e-04 1.10000e-05
1.51926e-04 6.77071e-04 3.08490e-04 8.50000e-06
1.70371e-04 6.63502e-04 3.10996e-04 1.10000e-05
1.82858e-04 6.78272e-04 3.08483e-04 8.50000e-06
1.80646e-04 6.89010e-04 3.21446e-04 8.50000e-06
2.03866e-04 6.82464e-04 3.13491e-04 1.35000e-05
2.13419e-04 6.64725e-04 3.22318e-04 8.50000e-06
2.26568e-04 6.73607e-04 3.10988e-04 1.10000e-05
9.15440e-05 7.09927e-04 3.10987e-04 1.10000e-05
1.39691e-04 7.12661e-04 3.10977e-04 1.10000e-05
1.59067e-04 7.12454e-04 3.08497e-04 8.50000e-06
1.71312e-04 6.99378e-04 3.08481e-04 8.50000e-06
1.88158e-04 6.97019e-04 3.08485e-04 8.50000e-06
2.03826e-04 7.04391e-04 3.08497e-04 8.50000e-06
2.24514e-04 6.97356e-04 3.10975e-04 1.10000e-05
2.44232e-04 6.92844e-04 3.08491e-04 8.50000e-06
2.44267e-04 7.17933e-04 3.18478e-04 1.85000e-05
8.09950e-05 7.29224e-04 3.10985e-04 1.10000e-05
9.23740e-05 7.22915e-04 3.25504e-04 8.50000e-06
9.57020e-05 7.43182e-04 3.19489e-04 1.10000e-05
1.14934e-04 7.23301e-04 3.15967e-04 1.60000e-05
1.58314e-04 7.41804e-04 3.08497e-04 8.50000e-06
1.84121e-04 7.23433e-04 3.20974e-04 2.10000e-05
2.15800e-04 7.19789e-04 3.10985e-04 1.10000e-05
2.15300e-04 7.41803e-04 3.10995e-04 1.10000e-05
2.37819e-04 7.42464e-04 3.08497e-04 8.50000e-06
7.85030e-05 7.48527e-04 3.08493e-04 8.50000e-06
8.13970e-05 7.68245e-04 3.10981e-04 1.10000e-05
7.84980e-05 7.54432e-04 3.24428e-04 8.50000e-06
1.11358e-04 7.46906e-04 3.08492e-04 8.50000e-06
1.14644e-04 7.45871e-04 3.25480e-04 8.50000e-06
1.13330e-04 7.71911e-04 3.18481e-04 1.85000e-05
1.30678e-04 7.46178e-04 3.10993e-04 1.10000e-05
1.50018e-04 7.67157e-04 3.18475e-04 1.85000e-05
1.76185e-04 7.53925e-04 3.10995e-04 1.10000e-05
1.98251e-04 7.56004e-04 3.10986e-04 1.10000e-05
2.25855e-04 7.70333e-04 3.20978e-04 2.10000e-05
8.43080e-05 7.92721e-04 3.13486e-04 1.35000e-05
1.10552e-04 7.96819e-04 3.08457e-04 8.50000e-06
1.67854e-04 7.84776e-04 3.08483e-04 8.50000e-06
1.90947e-04 7.81514e-04 3.15977e-04 1.60000e-05
2.44961e-04 7.98606e-04 3.13483e-04 1.35000e-05
7.90510e-05 8.24959e-04 3.08497e-04 8.50000e-06
1.01960e-04 8.17874e-04 3.22929e-04 1.85000e-05
1.35098e-04 8.02055e-04 3.18478e-04 1.85000e-05
1.69029e-04 8.03167e-04 3.24606e-04 1.60000e-05
1.87349e-04 8.04842e-04 3.08472e-04 8.50000e-06
1.84098e-04 8.27132e-04 3.13488e-04 1.35000e-05
2.13448e-04 8.10455e-04 3.20982e-04 2.10000e-05
2.40146e-04 8.22624e-04 3.18101e-04 8.50000e-06
8.60250e-05 8.47633e-04 3.15960e-04 1.60000e-05
1.25910e-04 8.36910e-04 3.13493e-04 1.35000e-05
1.54610e-04 8.30385e-04 3.15971e-04 1.60000e-05
1.66167e-04 8.54265e-04 3.10981e-04 1.10000e-05
2.02232e-04 8.44114e-04 3.10987e-04 1.10000e-05
2.23055e-04 8.40867e-04 3.08497e-04 8.50000e-06
2.45825e-04 8.46350e-04 3.15981e-04 1.60000e-05
8.34990e-05 8.76918e-04 3.13493e-04 1.35000e-05
1.19982e-04 8.70116e-04 3.20967e-04 2.10000e-05
1.45606e-04 8.60779e-04 3.08497e-04 8.50000e-06
1.75266e-04 8.78516e-04 3.10975e-04 1.10000e-05
1.85840e-04 8.62328e-04 3.08468e-04 8.50000e-06
2.07553e-04 8.74854e-04 3.18485e-04 1.85000e-05
2.30595e-04 8.64669e-04 3.08497e-04 8.50000e-06
9.72410e-05 8.91210e-04 3.23015e-04 8.50000e-06
1.05917e-04 8.92846e-04 3.08492e-04 8.50000e-06
1.18142e-04 9.10439e-04 3.13486e-04 1.35000e-05
1.45561e-04 8.99838e-04 3.15983e-04 1.60000e-05
1.74084e-04 8.97861e-04 3.08497e-04 8.50000e-06
1.96424e-04 9.04665e-04 3.13485e-04 1.35000e-05
2.17107e-04 8.99095e-04 3.08491e-04 8.50000e-06
2.19898e-04 8.98042e-04 3.25216e-04 8.50000e-06
2.35973e-04 8.88721e-04 3.13473e-04 1.35000e-05
7.85010e-05 9.33994e-04 3.08497e-04 8.50000e-06
8.65590e-05 9.12097e-04 3.15968e-04 1.60000e-05
1.41629e-04 9.31928e-04 3.15978e-04 1.60000e-05
1.70359e-04 9.19947e-04 3.13485e-04 1.35000e-05
1.93169e-04 9.28818e-04 3.10988e-04 1.10000e-05
2.21313e-04 9.24143e-04 3.18478e-04 1.85000e-05
2.42514e-04 9.37576e-04 3.08499e-04 8.50000e-06
7.86360e-05 9.50994e-04 3.08494e-04 8.50000e-06
8.09970e-05 9.58934e-04 3.26142e-04 1.10000e-05
9.53350e-05 9.65921e-04 3.10994e-04 1.10000e-05
1.08303e-04 9.40470e-04 3.18469e-04 1.85000e-05
1.60911e-04 9.45727e-04 3.08477e-04 8.50000e-06
1.65104e-04 9.39941e-04 3.26615e-04 1.10000e-05
1.83840e-04 9.56193e-04 3.15977e-04 1.60000e-05
2.07132e-04 9.46997e-04 3.08497e-04 8.50000e-06
2.28144e-04 9.58217e-04 3.15980e-04 1.60000e-05
8.35010e-05 9.88276e-04 3.13486e-04 1.35000e-05
1.05924e-04 9.92252e-04 3.22500e-04 1.10000e-05
1.15012e-04 9.75751e-04 3.10986e-04 1.10000e-05
1.47141e-04 9.70730e-04 3.23972e-04 2.40000e-05
1.71612e-04 9.85490e-04 3.08495e-04 8.50000e-06
1.93082e-04 9.85606e-04 3.13486e-04 1.35000e-05
2.20384e-04 9.86771e-04 3.13479e-04 1.35000e-05
2.43993e-04 9.76180e-04 3.08492e-04 8.50000e-06
7.84890e-05 1.01104e-03 3.08468e-04 8.50000e-06
1.04689e-04 1.01506e-03 3.13478e-04 1.35000e-05
1.24336e-04 9.95674e-04 3.10973e-04 1.10000e-05
1.45801e-04 1.00021e-03 3.08509e-04 8.50000e-06
1.63147e-04 1.00025e-03 3.08515e-04 8.50000e-06
1.83125e-04 1.01567e-03 3.18473e-04 1.85000e-05
2.14734e-04 1.01531e-03 3.13458e-04 1.35000e-05
2.42596e-04 1.00602e-03 3.15968e-04 1.60000e-05
8.34960e-05 1.03186e-03 3.13470e-04 1.35000e-05
1.11394e-04 1.04374e-03 3.15990e-04 1.60000e-05
1.37763e-04 1.02959e-03 3.13454e-04 1.35000e-05
1.62754e-04 1.03983e-03 3.13472e-04 1.35000e-05
1.84059e-04 1.04240e-03 3.08498e-04 8.50000e-06
2.07441e-04 1.04376e-03 3.15975e-04 1.60000e-05
2.32641e-04 1.03187e-03 3.11000e-04 1.10000e-05
7.85030e-05 1.05347e-03 3.08499e-04 8.50000e-06
9.43250e-05 1.05977e-03 3.08496e-04 8.50000e-06
1.06867e-04 1.07142e-03 3.08470e-04 8.50000e-06
1.06069e-04 1.06605e-03 3.24584e-04 8.50000e-06
1.23011e-04 1.06510e-03 3.08497e-04 8.50000e-06
1.37130e-04 1.06923e-03 3.25148e-04 8.50000e-06
1.41696e-04 1.05120e-03 3.08497e-04 8.50000e-06
1.40673e-04 1.06861e-03 3.08507e-04 8.50000e-06
1.60759e-04 1.07617e-03 3.08501e-04 8.50000e-06
1.54532e-04 1.06169e-03 3.20805e-04 1.10000e-05
1.69516e-04 1.06033e-03 3.08463e-04 8.50000e-06
1.90664e-04 1.07379e-03 3.18467e-04 1.85000e-05
2.42836e-04 1.05140e-03 3.10975e-04 1.10000e-05
2.24984e-04 1.07101e-03 3.15957e-04 1.60000e-05
8.59980e-05 1.08181e-03 3.15978e-04 1.60000e-05
1.20484e-04 1.09339e-03 3.22604e-04 2.10000e-05
1.45015e-04 1.08522e-03 3.08464e-04 8.50000e-06
1.63632e-04 1.09933e-03 3.15992e-04 1.60000e-05
1.98604e-04 1.09795e-03 3.08492e-04 8.50000e-06
2.09036e-04 1.09338e-03 3.21196e-04 8.50000e-06
2.23017e-04 1.10236e-03 3.10999e-04 1.10000e-05
2.39232e-04 1.08999e-03 3.08497e-04 8.50000e-06
8.64050e-05 1.11386e-03 3.15989e-04 1.60000e-05
1.14454e-04 1.12926e-03 3.15984e-04 1.60000e-05
1.42116e-04 1.11192e-03 3.08497e-04 8.50000e-06
1.76439e-04 1.12232e-03 3.08501e-04 8.50000e-06
1.86081e-04 1.10882e-03 3.12244e-04 8.50000e-06
1.96934e-04 1.12862e-03 3.13489e-04 1.35000e-05
2.21799e-04 1.12526e-03 3.10980e-04 1.10000e-05
2.43922e-04 1.11502e-03 3.13446e-04 1.35000e-05
8.85750e-05 1.14318e-03 3.13472e-04 1.35000e-05
1.54394e-04 1.13429e-03 3.18482e-04 1.85000e-05
1.84572e-04 1.15528e-03 3.15977e-04 1.60000e-05
2.35344e-04 1.14298e-03 3.10995e-04 1.10000e-05
7.91890e-05 1.16291e-03 3.08497e-04 8.50000e-06
1.11834e-04 1.16114e-03 3.15965e-04 1.60000e-05
8.86580e-05 1.18657e-03 3.18474e-04 1.85000e-05
1.41158e-04 1.16305e-03 3.13491e-04 1.35000e-05
1.53168e-04 1.18445e-03 3.10987e-04 1.10000e-05
1.62731e-04 1.16636e-03 3.16195e-04 8.50000e-06
1.69698e-04 1.18637e-03 3.21315e-04 8.50000e-06
1.74251e-04 1.17620e-03 3.08489e-04 8.50000e-06
1.94629e-04 1.18755e-03 3.15973e-04 1.60000e-05
2.15632e-04 1.16342e-03 3.15974e-04 1.60000e-05
2.38007e-04 1.17767e-03 3.10963e-04 1.10000e-05
2.40397e-04 1.16301e-03 3.23568e-04 8.50000e-06
1.27040e-04 1.18928e-03 3.15964e-04 1.60000e-05
1.62651e-04 1.20922e-03 3.15989e-04 1.60000e-05
2.31752e-04 1.20443e-03 3.15987e-04 1.60000e-05
1.03037e-04 1.21783e-03 3.15982e-04 1.60000e-05
1.13392e-04 1.23767e-03 3.25941e-04 8.50000e-06
1.24906e-04 1.23283e-03 3.10971e-04 1.10000e-05
1.46778e-04 1.23048e-03 3.10996e-04 1.10000e-05
1.71350e-04 1.23857e-03 3.13493e-04 1.35000e-05
1.92568e-04 1.24278e-03 3.08497e-04 8.50000e-06
1.96689e-04 1.21961e-03 3.15979e-04 1.60000e-05
2.12257e-04 1.24269e-03 3.10979e-04 1.10000e-05
2.20574e-04 1.22814e-03 3.25216e-04 1.10000e-05
2.33946e-04 1.23902e-03 3.10978e-04 1.10000e-05
2.45381e-04 1.22342e-03 3.08498e-04 8.50000e-06
8.63760e-05 1.24514e-03 3.15981e-04 1.60000e-05
1.16618e-04 1.25583e-03 3.13474e-04 1.35000e-05
1.47007e-04 1.25485e-03 3.13484e-04 1.35000e-05
1.74198e-04 1.26883e-03 3.15977e-04 1.60000e-05
1.99585e-04 1.26099e-03 3.10969e-04 1.10000e-05
2.27501e-04 1.26681e-03 3.18485e-04 1.85000e-05
8.09990e-05 1.27112e-03 3.10978e-04 1.10000e-05
1.06074e-04 1.28434e-03 3.08485e-04 8.50000e-06
8.63440e-05 1.29710e-03 3.15984e-04 1.60000e-05
1.00056e-04 1.27288e-03 3.26263e-04 1.35000e-05
1.32772e-04 1.28537e-03 3.20972e-04 2.10000e-05
1.63111e-04 1.29378e-03 3.08497e-04 8.50000e-06
2.13865e-04 1.29695e-03 3.13482e-04 1.35000e-05
2.37972e-04 1.29335e-03 3.10996e-04 1.10000e-05
1.10849e-04 1.30065e-03 3.08480e-04 8.50000e-06
1.09323e-04 1.30274e-03 3.25255e-04 8.50000e-06
9.82740e-05 1.31694e-03 3.26915e-04 8.50000e-06
1.22502e-04 1.32531e-03 3.18481e-04 1.85000e-05
1.42589e-04 1.31023e-03 3.08497e-04 8.50000e-06
1.85997e-04 1.30706e-03 3.15980e-04 1.60000e-05
2.19698e-04 1.32331e-03 3.13481e-04 1.35000e-05
8.09920e-05 1.34848e-03 3.23669e-04 1.10000e-05
8.36150e-05 1.32636e-03 3.13486e-04 1.35000e-05
1.03995e-04 1.35302e-03 3.13486e-04 1.35000e-05
9.88650e-05 1.33582e-03 3.26205e-04 8.50000e-06
1.59318e-04 1.32895e-03 3.18460e-04 1.85000e-05
1.87688e-04 1.33051e-03 3.08497e-04 8.50000e-06
2.04070e-04 1.34407e-03 3.10981e-04 1.10000e-05
2.39107e-04 1.33693e-03 3.08497e-04 8.50000e-06
8.34960e-05 1.37059e-03 3.13472e-04 1.35000e-05
1.23630e-04 1.37957e-03 3.15967e-04 1.60000e-05
1.41366e-04 1.35497e-03 3.13485e-04 1.35000e-05
1.66028e-04 1.35929e-03 3.10995e-04 1.10000e-05
1.91892e-04 1.36297e-03 3.10995e-04 1.10000e-05
2.27106e-04 1.36752e-03 3.23972e-04 2.40000e-05
9.66400e-05 1.39687e-03 3.15976e-04 1.60000e-05
1.54972e-04 1.38600e-03 3.15981e-04 1.60000e-05
1.86709e-04 1.39003e-03 3.15978e-04 1.60000e-05
2.10034e-04 1.39043e-03 3.08496e-04 8.50000e-06
2.06747e-04 1.40394e-03 3.18278e-04 8.50000e-06
2.25771e-04 1.40528e-03 3.10995e-04 1.10000e-05
2.40533e-04 1.39276e-03 3.08497e-04 8.50000e-06
2.43363e-04 1.40398e-03 3.24234e-04 1.10000e-05
8.27300e-05 1.42064e-03 3.10985e-04 1.10000e-05
7.84940e-05 1.40956e-03 3.26452e-04 8.50000e-06
1.04087e-04 1.42029e-03 3.08497e-04 8.50000e-06
8.76870e-05 1.43361e-03 3.24652e-04 8.50000e-06
1.28716e-04 1.41358e-03 3.18473e-04 1.85000e-05
1.59949e-04 1.41209e-03 3.10982e-04 1.10000e-05
1.51879e-04 1.43507e-03 3.13490e-04 1.35000e-05
1.86723e-04 1.42938e-03 3.20971e-04 2.10000e-05
2.10563e-04 1.41730e-03 3.08493e-04 8.50000e-06
2.44038e-04 1.41539e-03 3.08473e-04 8.50000e-06
2.28072e-04 1.42965e-03 3.13466e-04 1.35000e-05
8.10090e-05 1.44580e-03 3.10989e-04 1.10000e-05
1.12309e-04 1.44942e-03 3.20966e-04 2.10000e-05
1.35715e-04 1.46230e-03 3.08475e-04 8.50000e-06
1.44054e-04 1.45587e-03 3.24853e-04 1.10000e-05
1.65617e-04 1.45830e-03 3.13482e-04 1.35000e-05
2.18473e-04 1.45010e-03 3.08497e-04 8.50000e-06
2.41489e-04 1.45579e-03 3.15982e-04 1.60000e-05
8.50890e-05 1.47114e-03 3.13491e-04 1.35000e-05
7.85000e-05 1.49152e-03 3.08494e-04 8.50000e-06
7.93080e-05 1.49204e-03 3.25463e-04 8.50000e-06
1.00152e-04 1.49111e-03 3.10965e-04 1.10000e-05
1.26092e-04 1.48353e-03 3.15990e-04 1.60000e-05
1.50676e-04 1.47575e-03 3.08495e-04 8.50000e-06
1.47522e-04 1.47604e-03 3.25193e-04 8.50000e-06
1.72440e-04 1.49126e-03 3.20988e-04 2.10000e-05
2.02126e-04 1.46972e-03 3.15978e-04 1.60000e-05
2.26098e-04 1.49151e-03 3.15979e-04 1.60000e-05
8.60810e-05 1.51359e-03 3.15978e-04 1.60000e-05
1.15350e-04 1.51089e-03 3.13483e-04 1.35000e-05
1.41260e-04 1.51256e-03 3.21606e-04 1.35000e-05
1.46064e-04 1.49558e-03 3.08488e-04 8.50000e-06
1.93319e-04 1.50784e-03 3.08467e-04 8.50000e-06
2.02429e-04 1.49348e-03 3.08497e-04 8.50000e-06
8.21760e-05 1.54053e-03 3.08497e-04 8.50000e-06
1.10582e-04 1.54665e-03 3.23964e-04 2.40000e-05
1.31624e-04 1.52732e-03 3.08482e-04 8.50000e-06
1.51312e-04 1.53364e-03 3.10995e-04 1.10000e-05
1.81661e-04 1.52803e-03 3.15976e-04 1.60000e-05
2.12802e-04 1.52061e-03 3.15981e-04 1.60000e-05
2.25457e-04 1.54713e-03 3.13498e-04 1.35000e-05
2.49458e-04 1.52104e-03 3.20972e-04 2.10000e-05
8.10870e-05 1.56250e-03 3.10995e-04 1.10000e-05
1.31598e-04 1.57145e-03 3.10995e-04 1.10000e-05
1.64207e-04 1.55452e-03 3.13475e-04 1.35000e-05
1.52206e-04 1.57228e-03 3.08495e-04 8.50000e-06
1.93411e-04 1.55778e-03 3.15967e-04 1.60000e-05
1.76020e-04 1.57330e-03 3.08470e-04 8.50000e-06
2.15257e-04 1.56595e-03 3.08483e-04 8.50000e-06
1.00844e-04 1.57764e-03 3.10951e-04 1.10000e-05
1.13746e-04 1.59650e-03 3.08497e-04 8.50000e-06
1.63440e-04 1.58509e-03 3.08497e-04 8.50000e-06
1.43417e-04 1.59957e-03 3.15976e-04 1.60000e-05
1.45617e-04 1.57640e-03 3.23612e-04 8.50000e-06
1.92319e-04 1.58549e-03 3.10992e-04 1.10000e-05
2.13042e-04 1.58278e-03 3.08475e-04 8.50000e-06
2.09839e-04 1.60111e-03 3.24329e-04 1.60000e-05
2.37843e-04 1.57850e-03 3.13466e-04 1.35000e-05
9.11860e-05 1.61117e-03 3.20974e-04 2.10000e-05
1.21406e-04 1.61440e-03 3.10976e-04 1.10000e-05
1.74863e-04 1.60547e-03 3.15986e-04 1.60000e-05
1.96386e-04 1.61498e-03 3.08497e-04 8.50000e-06
2.14644e-04 1.62812e-03 3.13487e-04 1.35000e-05
2.36770e-04 1.60941e-03 3.13493e-04 1.35000e-05
8.12310e-05 1.64024e-03 3.10980e-04 1.10000e-05
1.15343e-04 1.64233e-03 3.18482e-04 1.85000e-05
1.48063e-04 1.63169e-03 3.15982e-04 1.60000e-05
1.61587e-04 1.65504e-03 3.10982e-04 1.10000e-05
1.44885e-04 1.65689e-03 3.25151e-04 1.10000e-05
1.84770e-04 1.63843e-03 3.18475e-04 1.85000e-05
2.19825e-04 1.65461e-03 3.13486e-04 1.35000e-05
8.59940e-05 1.66786e-03 3.15981e-04 1.60000e-05
1.33193e-04 1.66895e-03 3.10974e-04 1.10000e-05
1.54003e-04 1.67290e-03 3.08497e-04 8.50000e-06
1.75510e-04 1.66865e-03 3.08488e-04 8.50000e-06
1.91501e-04 1.66257e-03 3.08470e-04 8.50000e-06
2.18508e-04 1.68383e-03 3.10982e-04 1.10000e-05
2.33979e-04 1.67070e-03 3.08485e-04 8.50000e-06
8.09960e-05 1.70094e-03 3.10964e-04 1.10000e-05
1.00413e-04 1.69018e-03 3.10995e-04 1.10000e-05
1.00103e-04 1.71219e-03 3.10973e-04 1.10000e-05
1.19555e-04 1.68716e-03 3.08484e-04 8.50000e-06
1.43142e-04 1.69569e-03 3.18468e-04 1.85000e-05
1.81628e-04 1.69120e-03 3.13482e-04 1.35000e-05
2.09149e-04 1.71081e-03 3.18479e-04 1.85000e-05
2.37601e-04 1.70880e-03 3.10978e-04 1.10000e-05
7.84930e-05 7.84952e-05 3.34138e-04 8.50000e-06
7.85000e-05 7.96821e-05 3.51092e-04 8.50000e-06
1.05901e-04 8.09961e-05 3.27682e-04 1.10000e-05
1.22497e-04 7.84899e-05 3.37915e-04 8.50000e-06
1.62207e-04 7.84922e-05 3.31987e-04 8.50000e-06
1.88573e-04 7.84967e-05 3.28119e-04 8.50000e-06
1.75324e-04 7.84940e-05 3.42798e-04 8.50000e-06
2.26819e-04 8.09980e-05 3.27784e-04 1.10000e-05
2.40306e-04 8.09929e-05 3.48717e-04 1.10000e-05
8.10180e-05 1.03216e-04 3.27614e-04 1.10000e-05
7.84950e-05 1.04438e-04 3.46906e-04 8.50000e-06
9.18840e-05 9.03992e-05 3.41806e-04 1.10000e-05
1.20241e-04 1.01843e-04 3.31679e-04 8.50000e-06
1.45167e-04 9.06865e-05 3.44629e-04 1.60000e-05
1.52971e-04 1.09693e-04 3.27122e-04 1.10000e-05
1.80110e-04 1.01454e-04 3.35738e-04 1.60000e-05
2.06021e-04 8.37915e-05 3.40420e-04 1.35000e-05
2.13524e-04 1.05253e-04 3.49544e-04 1.10000e-05
2.35168e-04 1.02594e-04 3.38387e-04 1.35000e-05
7.84720e-05 1.19238e-04 3.38378e-04 8.50000e-06
1.02910e-04 1.18226e-04 3.37277e-04 1.60000e-05
1.33090e-04 1.20287e-04 3.47714e-04 1.60000e-05
1.18184e-04 1.37352e-04 3.37930e-04 8.50000e-06
1.57333e-04 1.31736e-04 3.41189e-04 8.50000e-06
1.59223e-04 1.13515e-04 3.47859e-04 1.10000e-05
1.70414e-04 1.32709e-04 3.30382e-04 8.50000e-06
1.89284e-04 1.30844e-04 3.34909e-04 1.10000e-05
1.84920e-04 1.20774e-04 3.53970e-04 1.10000e-05
2.19787e-04 1.18156e-04 3.36154e-04 8.50000e-06
2.01145e-04 1.13910e-04 3.37223e-04 8.50000e-06
2.03862e-04 1.23986e-04 3.50639e-04 8.50000e-06
2.23672e-04 1.24088e-04 3.51601e-04 8.50000e-06
2.37249e-04 1.28917e-04 3.38466e-04 1.10000e-05
8.34980e-05 1.40204e-04 3.34143e-04 1.35000e-05
7.84970e-05 1.50636e-04 3.52851e-04 8.50000e-06
1.09096e-04 1.55077e-04 3.39305e-04 1.10000e-05
1.00436e-04 1.40029e-04 3.48173e-04 8.50000e-06
1.22205e-04 1.47048e-04 3.51300e-04 8.50000e-06
1.40732e-04 1.50965e-04 3.32057e-04 1.85000e-05
1.80838e-04 1.62381e-04 3.44102e-04 8.50000e-06
1.76586e-04 1.43740e-04 3.42148e-04 8.50000e-06
1.97875e-04 1.64503e-04 3.34866e-04 1.10000e-05
2.14181e-04 1.43747e-04 3.40480e-04 1.60000e-05
8.34980e-05 1.66789e-04 3.38786e-04 1.35000e-05
1.26691e-04 1.78078e-04 3.48098e-04 1.60000e-05
1.64658e-04 1.66791e-04 3.41349e-04 8.50000e-06
1.53620e-04 1.77345e-04 3.29234e-04 1.10000e-05
1.50621e-04 1.72886e-04 3.48739e-04 8.50000e-06
1.77116e-04 1.80593e-04 3.35401e-04 1.10000e-05
2.20349e-04 1.67071e-04 3.28296e-04 1.10000e-05
2.42305e-04 1.66012e-04 3.29034e-04 1.10000e-05
2.25676e-04 1.71017e-04 3.51863e-04 1.35000e-05
2.33064e-04 1.85982e-04 3.29109e-04 1.10000e-05
9.16600e-05 1.97401e-04 3.43050e-04 1.85000e-05
1.05030e-04 2.17999e-04 3.54262e-04 8.50000e-06
1.30232e-04 2.18959e-04 3.44638e-04 1.85000e-05
1.51074e-04 1.94742e-04 3.46285e-04 1.35000e-05
1.77645e-04 2.07308e-04 3.43815e-04 1.60000e-05
2.11859e-04 2.11501e-04 3.45381e-04 1.10000e-05
2.32740e-04 2.18758e-04 3.29882e-04 1.60000e-05
8.97150e-05 2.34097e-04 3.38927e-04 1.85000e-05
1.56973e-04 2.22680e-04 3.44838e-04 8.50000e-06
1.41153e-04 2.46323e-04 3.43310e-04 1.10000e-05
1.74952e-04 2.39165e-04 3.42560e-04 1.60000e-05
2.05322e-04 2.34837e-04 3.33485e-04 1.60000e-05
2.27784e-04 2.33941e-04 3.48455e-04 8.50000e-06
2.39189e-04 2.43073e-04 3.39768e-04 8.50000e-06
2.47251e-04 2.29635e-04 3.46354e-04 8.50000e-06
8.09840e-05 2.61083e-04 3.30915e-04 1.10000e-05
9.64070e-05 2.64390e-04 3.46242e-04 1.10000e-05
1.08878e-04 2.52945e-04 3.36570e-04 8.50000e-06
1.14285e-04 2.71796e-04 3.43870e-04 8.50000e-06
1.26767e-04 2.60300e-04 3.34270e-04 1.10000e-05
1.44070e-04 2.65449e-04 3.45701e-04 8.50000e-06
1.59234e-04 2.57813e-04 3.44867e-04 8.50000e-06
1.60716e-04 2.73544e-04 3.38604e-04 8.50000e-06
1.80543e-04 2.69557e-04 3.29973e-04 1.35000e-05
2.30316e-04 2.62572e-04 3.34771e-04 1.35000e-05
2.49008e-04 2.60685e-04 3.46214e-04 8.50000e-06
8.10000e-05 2.82865e-04 3.33827e-04 1.10000e-05
8.13930e-05 2.97212e-04 3.50494e-04 1.10000e-05
1.00095e-04 2.85990e-04 3.44300e-04 1.10000e-05
9.96550e-05 2.97173e-04 3.28340e-04 8.50000e-06
1.21706e-04 2.89405e-04 3.47738e-04 1.10000e-05
1.40245e-04 2.83101e-04 3.29155e-04 1.60000e-05
1.49789e-04 3.02025e-04 3.45860e-04 1.10000e-05
1.52881e-04 2.83257e-04 3.50142e-04 8.50000e-06
1.83532e-04 2.79366e-04 3.49432e-04 8.50000e-06
1.72474e-04 2.94213e-04 3.37551e-04 1.35000e-05
2.06873e-04 2.78985e-04 3.42003e-04 1.60000e-05
2.45480e-04 2.81917e-04 3.38860e-04 8.50000e-06
2.30495e-04 2.90173e-04 3.29478e-04 1.10000e-05
2.30642e-04 2.81932e-04 3.47147e-04 8.50000e-06
7.84960e-05 3.05180e-04 3.32934e-04 8.50000e-06
8.35010e-05 3.21402e-04 3.53742e-04 1.35000e-05
1.09534e-04 3.10146e-04 3.43096e-04 1.35000e-05
1.26703e-04 3.27738e-04 3.31668e-04 1.35000e-05
1.40469e-04 3.07580e-04 3.28423e-04 8.50000e-06
1.45902e-04 3.19810e-04 3.38884e-04 8.50000e-06
1.66620e-04 3.16151e-04 3.46753e-04 1.10000e-05
2.00349e-04 3.11137e-04 3.40509e-04 1.35000e-05
2.16000e-04 3.27417e-04 3.32821e-04 8.50000e-06
2.27248e-04 3.10006e-04 3.43491e-04 1.35000e-05
8.34940e-05 3.55951e-04 3.41196e-04 1.35000e-05
1.09242e-04 3.42712e-04 3.50125e-04 1.60000e-05
1.33435e-04 3.54514e-04 3.37794e-04 1.35000e-05
1.35411e-04 3.37548e-04 3.51650e-04 8.50000e-06
1.55294e-04 3.39369e-04 3.42413e-04 1.35000e-05
1.69323e-04 3.53323e-04 3.27996e-04 1.10000e-05
1.69887e-04 3.55033e-04 3.47459e-04 8.50000e-06
1.84581e-04 3.35945e-04 3.42993e-04 1.60000e-05
2.08520e-04 3.32762e-04 3.47119e-04 8.50000e-06
2.10895e-04 3.52995e-04 3.32860e-04 8.50000e-06
2.21243e-04 3.41871e-04 3.40481e-04 8.50000e-06
1.08074e-04 3.66734e-04 3.28997e-04 1.60000e-05
8.67720e-05 3.86005e-04 3.46320e-04 1.60000e-05
1.11072e-04 3.83174e-04 3.47031e-04 8.50000e-06
1.00081e-04 3.66032e-04 3.52123e-04 8.50000e-06
1.29287e-04 3.78959e-04 3.41527e-04 1.10000e-05
1.19117e-04 3.65141e-04 3.50807e-04 8.50000e-06
1.55221e-04 3.66654e-04 3.29869e-04 8.50000e-06
1.50973e-04 3.70090e-04 3.51165e-04 1.35000e-05
1.53887e-04 3.86079e-04 3.32821e-04 1.10000e-05
1.92427e-04 3.58841e-04 3.30657e-04 1.10000e-05
1.74727e-04 3.74681e-04 3.38844e-04 1.35000e-05
1.96120e-04 3.78325e-04 3.35109e-04 8.50000e-06
2.23660e-04 3.63488e-04 3.28893e-04 8.50000e-06
2.47142e-04 3.68784e-04 3.50703e-04 2.40000e-05
7.85320e-05 4.09040e-04 3.50545e-04 8.50000e-06
1.40142e-04 3.97773e-04 3.45353e-04 1.10000e-05
1.55832e-04 4.09493e-04 3.35367e-04 1.10000e-05
1.83539e-04 3.90298e-04 3.51595e-04 8.50000e-06
1.73574e-04 3.96722e-04 3.39326e-04 8.50000e-06
1.90123e-04 3.94181e-04 3.36404e-04 8.50000e-06
2.11852e-04 3.93344e-04 3.39735e-04 1.35000e-05
2.09133e-04 4.13357e-04 3.48449e-04 8.50000e-06
8.09800e-05 4.15296e-04 3.32225e-04 1.10000e-05
7.85150e-05 4.28190e-04 3.46635e-04 8.50000e-06
1.01087e-04 4.32777e-04 3.46995e-04 1.35000e-05
1.34915e-04 4.35907e-04 3.42355e-04 8.50000e-06
1.39040e-04 4.18101e-04 3.40280e-04 8.50000e-06
1.63080e-04 4.40819e-04 3.47587e-04 1.60000e-05
1.78936e-04 4.17591e-04 3.34559e-04 1.35000e-05
1.93416e-04 4.23724e-04 3.49939e-04 8.50000e-06